5
Properties=species:S:1:pos:R:3:charge:R:1:forces:R:3 energy=-211.7074377422037 free_energy=-211.7074377422037 pbc="F F F"
C        0.00000000       0.00000000       0.00000000       4.46912328       4.90966910       4.90965996       4.90965061
H        0.65330000       0.65330000       0.65330000       0.58853262       2.30484808       2.30485329       2.30485842
H       -0.65330000       0.65330000       0.65330000       0.98078131      -2.87582529      -2.16933918      -2.16933894
H        0.65330000      -0.65330000       0.65330000       0.98078131      -2.16934375      -2.87582601      -2.16934342
H        0.65330000       0.65330000      -0.65330000       0.98078148      -2.16934815      -2.16934806      -2.87582667
