8
Lattice="1.1 -1.905255 -2.2 2.2 -3.810511 4.4 3.810511 2.2 0.0" Properties=species:S:1:pos:R:3:forces:R:3:charge:R:1 energy=-1035.1898955802467 free_energy=-1035.1898955802467 pbc="F F F"
Si       2.35186900       2.63725800      -1.10800900      -1.87590652      -1.41156044       0.28959655       3.84519622
Si       3.45906400       0.71447900       1.11078100      -2.23015065      -0.99236611      -0.25848488       3.83911306
C        1.93996200       1.12318300      -2.20272900       0.33257932       0.20077886       0.01567109       4.17510120
C        3.04018200      -0.78839000       0.00286100       0.43402272       0.28294423       0.00705560       4.19288311
Si       1.50262600      -0.40262600      -1.09999800       0.41433158       0.15888473       0.01356534       3.80633161
Si       2.60262700      -2.30788200       1.10000000       0.31939957       0.15048421      -0.00995811       3.81785297
C        0.00000000       0.00000000       0.00000000       1.22187359       0.86482004      -0.11718014       4.15729327
C        1.10000000      -1.90525400       2.20000000       1.38385040       0.74601448       0.05973455       4.16622855
