2
Lattice="3.3225 3.3225 0.0 3.3225 0.0 3.3225 0.0 3.3225 3.3225" Properties=species:S:1:pos:R:3:charge:R:1:forces:R:3 energy=-251.9712034128631 free_energy=-251.9712034128631 pbc="F F F"
C        0.00000000       0.00000000       0.00000000       3.99432717      -0.11370367      -0.11370504      -0.11370560
Si       1.66125000       1.66125000       1.66125000       4.00567283       0.11370367       0.11370504       0.11370560
