8
Lattice="1.1 -1.905255 -2.2 2.2 -3.810511 4.4 3.810511 2.2 0.0" Properties=species:S:1:pos:R:3:forces:R:3:charge:R:1 energy=-1037.6507541298547 free_energy=-1037.6507541298547 pbc="F F F"
Si       2.35186900       2.63725800      -1.10800900      -1.41636021      -1.07476770       0.24560447       3.85943742
Si       3.45906400       0.71447900       1.11078100      -1.67117854      -0.59245920      -0.30603125       3.85319599
C        1.93996200       1.12318300      -2.20272900       0.06128672       0.02049957       0.02169592       4.16166916
C        3.04018200      -0.78839000       0.00286100       0.13360303       0.10376625      -0.00391063       4.17738925
Si       1.50262600      -0.40262600      -1.09999800       0.22177705       0.09892647      -0.00388072       3.82203414
Si       2.60262700      -2.30788200       1.10000000       0.29308849       0.16548046      -0.01014867       3.83437283
C        0.00000000       0.00000000       0.00000000       1.07950921       0.58764665       0.02132507       4.14427697
C        1.10000000      -1.90525400       2.20000000       1.29827425       0.69090751       0.03534581       4.14762424
