8
Lattice="1.1 -1.905255 -2.2 2.2 -3.810511 4.4 3.810511 2.2 0.0" Properties=species:S:1:pos:R:3:forces:R:3:charge:R:1 energy=-1037.7028992791097 free_energy=-1037.7028992791097 pbc="F F F"
Si       2.35186900       2.63725800      -1.10800900      -1.53979332      -1.21284765       0.30350193       3.85953752
Si       3.45906400       0.71447900       1.11078100      -1.89110574      -0.77682673      -0.25662462       3.85329391
C        1.93996200       1.12318300      -2.20272900      -0.04047084      -0.01713084       0.00301099       4.16148286
C        3.04018200      -0.78839000       0.00286100       0.06438736       0.04813569       0.00950149       4.17722041
Si       1.50262600      -0.40262600      -1.09999800       0.70415220       0.35125020       0.01841688       3.82221658
Si       2.60262700      -2.30788200       1.10000000       0.61907753       0.33873628       0.00278010       3.83453482
C        0.00000000       0.00000000       0.00000000       0.95160534       0.68491866      -0.12616232       4.14415504
C        1.10000000      -1.90525400       2.20000000       1.13214747       0.58376439       0.04557555       4.14755886
